SHA512 (OpenMolcas-24.10.tar.bz2) = 028f9f19445310b04b1660665c649dbdbb5f581e5f1bc379d32ca929e5768098fa4b71b8616785aa2c97b1f5a17dee28940ee87d8187072efeae217fcc48288d
